25
Lattice="20.0 0.0 0.0 0.0 20.0 0.0 0.0 0.0 20.0" Properties=species:S:1:pos:R:3:forces:R:3 mode=1 frequency_thz=-1.0078716473 interpolation_step=0 pbc="T T T"
C        7.88764181       9.36618335       8.86988460      -0.03374960       0.02123242       0.02048029
C        8.85991585       8.92817991       9.96387300      -0.00147020       0.00536360      -0.01367407
C        8.09819299       8.41510433      11.18402062       0.03343187      -0.02854154      -0.00684198
N        9.79821072       9.99056499      10.31591517      -0.00190562       0.00580392      -0.01460238
C       11.21392347       9.68338142      10.09370037      -0.00013020      -0.00269734       0.00849800
C       11.66092121       8.47213516      10.90595837      -0.01865454      -0.00496976       0.01471352
C       11.50455352       9.47076535       8.61102326       0.02132695      -0.00403442       0.01259226
Si       9.30126177      11.52671973      10.90289516       0.00051404       0.00798667      -0.01843973
H        7.28548286       8.50325253       8.55935546      -0.00748394       0.00570789       0.00269664
H        8.42586678       9.74289903       7.99223991      -0.01747911       0.01601981       0.00546674
H        7.20314014      10.15119365       9.21878010      -0.01150716      -0.00020602       0.01685984
H        9.47065609       8.10584692       9.57047893      -0.00122412       0.00574586      -0.01398686
H        8.78871851       8.10494584      11.97716022       0.01609514      -0.01385946      -0.00975594
H        7.42390114       9.17795931      11.59434221       0.01251817      -0.01171623       0.00903210
H        7.49425949       7.54680614      10.89259037       0.00784414      -0.00637472      -0.00380899
H       11.79212003      10.55572769      10.43823951      -0.00018817      -0.00167185       0.00489206
H       12.74973677       8.36754855      10.82898761      -0.00534308      -0.00361241       0.00816160
H       11.40229010       8.58247958      11.96504664      -0.00893385      -0.00083531       0.00334466
H       11.20763500       7.54652544      10.52898263      -0.00587289      -0.00063636       0.00279733
H       11.03256551       8.55108864       8.24189096       0.00779627      -0.00129514       0.00195693
H       11.14543461      10.31191137       8.00685267       0.00859595      -0.00135981       0.00195351
H       12.58664841       9.37870870       8.46112554       0.00681293      -0.00115378       0.00815580
H       10.29221434      11.97397740      11.91437690       0.00919676       0.00907032      -0.01577818
H        7.95879048      11.44366815      11.53203522       0.00765317      -0.00276144       0.01224026
H        9.26884530      12.47238792       9.75688349      -0.01631470      -0.00208319      -0.00596248
25
Lattice="20.0 0.0 0.0 0.0 20.0 0.0 0.0 0.0 20.0" Properties=species:S:1:pos:R:3:forces:R:3 mode=1 frequency_thz=-1.0078716473 interpolation_step=1 pbc="T T T"
C        7.88426685       9.36830659       8.87193263      -0.03374960       0.02123242       0.02048029
C        8.85976883       8.92871627       9.96250559      -0.00147020       0.00536360      -0.01367407
C        8.10153618       8.41225018      11.18333642       0.03343187      -0.02854154      -0.00684198
N        9.79802016       9.99114538      10.31445493      -0.00190562       0.00580392      -0.01460238
C       11.21391045       9.68311168      10.09455017      -0.00013020      -0.00269734       0.00849800
C       11.65905575       8.47163818      10.90742972      -0.01865454      -0.00496976       0.01471352
C       11.50668621       9.47036191       8.61228248       0.02132695      -0.00403442       0.01259226
Si       9.30131317      11.52751840      10.90105119       0.00051404       0.00798667      -0.01843973
H        7.28473447       8.50382332       8.55962512      -0.00748394       0.00570789       0.00269664
H        8.42411887       9.74450101       7.99278659      -0.01747911       0.01601981       0.00546674
H        7.20198943      10.15117305       9.22046609      -0.01150716      -0.00020602       0.01685984
H        9.47053368       8.10642150       9.56908024      -0.00122412       0.00574586      -0.01398686
H        8.79032803       8.10355990      11.97618462       0.01609514      -0.01385946      -0.00975594
H        7.42515296       9.17678769      11.59524542       0.01251817      -0.01171623       0.00903210
H        7.49504391       7.54616867      10.89220947       0.00784414      -0.00637472      -0.00380899
H       11.79210122      10.55556051      10.43872872      -0.00018817      -0.00167185       0.00489206
H       12.74920246       8.36718731      10.82980377      -0.00534308      -0.00361241       0.00816160
H       11.40139672       8.58239605      11.96538110      -0.00893385      -0.00083531       0.00334466
H       11.20704772       7.54646181      10.52926237      -0.00587289      -0.00063636       0.00279733
H       11.03334513       8.55095913       8.24208665       0.00779627      -0.00129514       0.00195693
H       11.14629421      10.31177539       8.00704803       0.00859595      -0.00135981       0.00195351
H       12.58732970       9.37859332       8.46194112       0.00681293      -0.00115378       0.00815580
H       10.29313401      11.97488443      11.91279909       0.00919676       0.00907032      -0.01577818
H        7.95955580      11.44339200      11.53325924       0.00765317      -0.00276144       0.01224026
H        9.26721383      12.47217960       9.75628725      -0.01631470      -0.00208319      -0.00596248
25
Lattice="20.0 0.0 0.0 0.0 20.0 0.0 0.0 0.0 20.0" Properties=species:S:1:pos:R:3:forces:R:3 mode=1 frequency_thz=-1.0078716473 interpolation_step=2 pbc="T T T"
C        7.88089189       9.37042983       8.87398066      -0.03374960       0.02123242       0.02048029
C        8.85962181       8.92925263       9.96113819      -0.00147020       0.00536360      -0.01367407
C        8.10487937       8.40939602      11.18265222       0.03343187      -0.02854154      -0.00684198
N        9.79782960       9.99172578      10.31299469      -0.00190562       0.00580392      -0.01460238
C       11.21389743       9.68284195      10.09539997      -0.00013020      -0.00269734       0.00849800
C       11.65719030       8.47114121      10.90890107      -0.01865454      -0.00496976       0.01471352
C       11.50881891       9.46995846       8.61354171       0.02132695      -0.00403442       0.01259226
Si       9.30136458      11.52831706      10.89920721       0.00051404       0.00798667      -0.01843973
H        7.28398607       8.50439411       8.55989478      -0.00748394       0.00570789       0.00269664
H        8.42237096       9.74610299       7.99333326      -0.01747911       0.01601981       0.00546674
H        7.20083871      10.15115245       9.22215207      -0.01150716      -0.00020602       0.01685984
H        9.47041127       8.10699609       9.56768155      -0.00122412       0.00574586      -0.01398686
H        8.79193754       8.10217395      11.97520903       0.01609514      -0.01385946      -0.00975594
H        7.42640478       9.17561606      11.59614863       0.01251817      -0.01171623       0.00903210
H        7.49582832       7.54553120      10.89182857       0.00784414      -0.00637472      -0.00380899
H       11.79208240      10.55539332      10.43921793      -0.00018817      -0.00167185       0.00489206
H       12.74866815       8.36682607      10.83061993      -0.00534308      -0.00361241       0.00816160
H       11.40050333       8.58231252      11.96571557      -0.00893385      -0.00083531       0.00334466
H       11.20646043       7.54639817      10.52954210      -0.00587289      -0.00063636       0.00279733
H       11.03412476       8.55082961       8.24228234       0.00779627      -0.00129514       0.00195693
H       11.14715380      10.31163941       8.00724338       0.00859595      -0.00135981       0.00195351
H       12.58801100       9.37847794       8.46275670       0.00681293      -0.00115378       0.00815580
H       10.29405369      11.97579146      11.91122127       0.00919676       0.00907032      -0.01577818
H        7.96032111      11.44311586      11.53448327       0.00765317      -0.00276144       0.01224026
H        9.26558236      12.47197128       9.75569100      -0.01631470      -0.00208319      -0.00596248
25
Lattice="20.0 0.0 0.0 0.0 20.0 0.0 0.0 0.0 20.0" Properties=species:S:1:pos:R:3:forces:R:3 mode=1 frequency_thz=-1.0078716473 interpolation_step=3 pbc="T T T"
C        7.87751693       9.37255307       8.87602869      -0.03374960       0.02123242       0.02048029
C        8.85947479       8.92978899       9.95977078      -0.00147020       0.00536360      -0.01367407
C        8.10822255       8.40654187      11.18196802       0.03343187      -0.02854154      -0.00684198
N        9.79763904       9.99230617      10.31153445      -0.00190562       0.00580392      -0.01460238
C       11.21388441       9.68257221      10.09624977      -0.00013020      -0.00269734       0.00849800
C       11.65532485       8.47064423      10.91037243      -0.01865454      -0.00496976       0.01471352
C       11.51095160       9.46955502       8.61480093       0.02132695      -0.00403442       0.01259226
Si       9.30141598      11.52911573      10.89736324       0.00051404       0.00798667      -0.01843973
H        7.28323768       8.50496490       8.56016445      -0.00748394       0.00570789       0.00269664
H        8.42062305       9.74770497       7.99387994      -0.01747911       0.01601981       0.00546674
H        7.19968800      10.15113184       9.22383806      -0.01150716      -0.00020602       0.01685984
H        9.47028886       8.10757068       9.56628287      -0.00122412       0.00574586      -0.01398686
H        8.79354706       8.10078801      11.97423343       0.01609514      -0.01385946      -0.00975594
H        7.42765660       9.17444444      11.59705184       0.01251817      -0.01171623       0.00903210
H        7.49661273       7.54489373      10.89144768       0.00784414      -0.00637472      -0.00380899
H       11.79206358      10.55522614      10.43970713      -0.00018817      -0.00167185       0.00489206
H       12.74813384       8.36646483      10.83143609      -0.00534308      -0.00361241       0.00816160
H       11.39960995       8.58222899      11.96605003      -0.00893385      -0.00083531       0.00334466
H       11.20587314       7.54633454      10.52982183      -0.00587289      -0.00063636       0.00279733
H       11.03490439       8.55070010       8.24247804       0.00779627      -0.00129514       0.00195693
H       11.14801340      10.31150343       8.00743873       0.00859595      -0.00135981       0.00195351
H       12.58869229       9.37836257       8.46357228       0.00681293      -0.00115378       0.00815580
H       10.29497336      11.97669850      11.90964345       0.00919676       0.00907032      -0.01577818
H        7.96108643      11.44283971      11.53570730       0.00765317      -0.00276144       0.01224026
H        9.26395089      12.47176296       9.75509475      -0.01631470      -0.00208319      -0.00596248
25
Lattice="20.0 0.0 0.0 0.0 20.0 0.0 0.0 0.0 20.0" Properties=species:S:1:pos:R:3:forces:R:3 mode=1 frequency_thz=-1.0078716473 interpolation_step=4 pbc="T T T"
C        7.87414197       9.37467631       8.87807672      -0.03374960       0.02123242       0.02048029
C        8.85932777       8.93032535       9.95840337      -0.00147020       0.00536360      -0.01367407
C        8.11156574       8.40368772      11.18128382       0.03343187      -0.02854154      -0.00684198
N        9.79744848       9.99288656      10.31007422      -0.00190562       0.00580392      -0.01460238
C       11.21387139       9.68230248      10.09709957      -0.00013020      -0.00269734       0.00849800
C       11.65345939       8.47014726      10.91184378      -0.01865454      -0.00496976       0.01471352
C       11.51308430       9.46915158       8.61606016       0.02132695      -0.00403442       0.01259226
Si       9.30146739      11.52991440      10.89551927       0.00051404       0.00798667      -0.01843973
H        7.28248928       8.50553568       8.56043411      -0.00748394       0.00570789       0.00269664
H        8.41887513       9.74930695       7.99442661      -0.01747911       0.01601981       0.00546674
H        7.19853728      10.15111124       9.22552404      -0.01150716      -0.00020602       0.01685984
H        9.47016644       8.10814526       9.56488418      -0.00122412       0.00574586      -0.01398686
H        8.79515657       8.09940206      11.97325784       0.01609514      -0.01385946      -0.00975594
H        7.42890841       9.17327282      11.59795505       0.01251817      -0.01171623       0.00903210
H        7.49739715       7.54425626      10.89106678       0.00784414      -0.00637472      -0.00380899
H       11.79204477      10.55505895      10.44019634      -0.00018817      -0.00167185       0.00489206
H       12.74759954       8.36610359      10.83225225      -0.00534308      -0.00361241       0.00816160
H       11.39871656       8.58214546      11.96638450      -0.00893385      -0.00083531       0.00334466
H       11.20528585       7.54627090      10.53010157      -0.00587289      -0.00063636       0.00279733
H       11.03568402       8.55057058       8.24267373       0.00779627      -0.00129514       0.00195693
H       11.14887299      10.31136745       8.00763408       0.00859595      -0.00135981       0.00195351
H       12.58937358       9.37824719       8.46438786       0.00681293      -0.00115378       0.00815580
H       10.29589304      11.97760553      11.90806563       0.00919676       0.00907032      -0.01577818
H        7.96185175      11.44256357      11.53693132       0.00765317      -0.00276144       0.01224026
H        9.26231942      12.47155464       9.75449850      -0.01631470      -0.00208319      -0.00596248
25
Lattice="20.0 0.0 0.0 0.0 20.0 0.0 0.0 0.0 20.0" Properties=species:S:1:pos:R:3:forces:R:3 mode=1 frequency_thz=-1.0078716473 interpolation_step=5 pbc="T T T"
C        7.87076701       9.37679955       8.88012475      -0.03374960       0.02123242       0.02048029
C        8.85918075       8.93086171       9.95703597      -0.00147020       0.00536360      -0.01367407
C        8.11490893       8.40083356      11.18059963       0.03343187      -0.02854154      -0.00684198
N        9.79725791       9.99346695      10.30861398      -0.00190562       0.00580392      -0.01460238
C       11.21385837       9.68203275      10.09794937      -0.00013020      -0.00269734       0.00849800
C       11.65159394       8.46965028      10.91331513      -0.01865454      -0.00496976       0.01471352
C       11.51521699       9.46874814       8.61731939       0.02132695      -0.00403442       0.01259226
Si       9.30151879      11.53071306      10.89367529       0.00051404       0.00798667      -0.01843973
H        7.28174089       8.50610647       8.56070378      -0.00748394       0.00570789       0.00269664
H        8.41712722       9.75090894       7.99497328      -0.01747911       0.01601981       0.00546674
H        7.19738656      10.15109064       9.22721002      -0.01150716      -0.00020602       0.01685984
H        9.47004403       8.10871985       9.56348549      -0.00122412       0.00574586      -0.01398686
H        8.79676608       8.09801611      11.97228225       0.01609514      -0.01385946      -0.00975594
H        7.43016023       9.17210119      11.59885826       0.01251817      -0.01171623       0.00903210
H        7.49818156       7.54361878      10.89068588       0.00784414      -0.00637472      -0.00380899
H       11.79202595      10.55489177      10.44068554      -0.00018817      -0.00167185       0.00489206
H       12.74706523       8.36574235      10.83306841      -0.00534308      -0.00361241       0.00816160
H       11.39782318       8.58206193      11.96671897      -0.00893385      -0.00083531       0.00334466
H       11.20469856       7.54620726      10.53038130      -0.00587289      -0.00063636       0.00279733
H       11.03646364       8.55044107       8.24286942       0.00779627      -0.00129514       0.00195693
H       11.14973259      10.31123147       8.00782943       0.00859595      -0.00135981       0.00195351
H       12.59005487       9.37813181       8.46520344       0.00681293      -0.00115378       0.00815580
H       10.29681271      11.97851256      11.90648781       0.00919676       0.00907032      -0.01577818
H        7.96261707      11.44228742      11.53815535       0.00765317      -0.00276144       0.01224026
H        9.26068795      12.47134632       9.75390225      -0.01631470      -0.00208319      -0.00596248
25
Lattice="20.0 0.0 0.0 0.0 20.0 0.0 0.0 0.0 20.0" Properties=species:S:1:pos:R:3:forces:R:3 mode=1 frequency_thz=-1.0078716473 interpolation_step=6 pbc="T T T"
C        7.86739205       9.37892279       8.88217277      -0.03374960       0.02123242       0.02048029
C        8.85903373       8.93139807       9.95566856      -0.00147020       0.00536360      -0.01367407
C        8.11825211       8.39797941      11.17991543       0.03343187      -0.02854154      -0.00684198
N        9.79706735       9.99404734      10.30715374      -0.00190562       0.00580392      -0.01460238
C       11.21384535       9.68176301      10.09879917      -0.00013020      -0.00269734       0.00849800
C       11.64972848       8.46915331      10.91478648      -0.01865454      -0.00496976       0.01471352
C       11.51734969       9.46834470       8.61857861       0.02132695      -0.00403442       0.01259226
Si       9.30157019      11.53151173      10.89183132       0.00051404       0.00798667      -0.01843973
H        7.28099250       8.50667726       8.56097344      -0.00748394       0.00570789       0.00269664
H        8.41537931       9.75251092       7.99551996      -0.01747911       0.01601981       0.00546674
H        7.19623585      10.15107004       9.22889601      -0.01150716      -0.00020602       0.01685984
H        9.46992162       8.10929443       9.56208681      -0.00122412       0.00574586      -0.01398686
H        8.79837560       8.09663017      11.97130665       0.01609514      -0.01385946      -0.00975594
H        7.43141205       9.17092957      11.59976147       0.01251817      -0.01171623       0.00903210
H        7.49896597       7.54298131      10.89030498       0.00784414      -0.00637472      -0.00380899
H       11.79200713      10.55472458      10.44117475      -0.00018817      -0.00167185       0.00489206
H       12.74653092       8.36538111      10.83388457      -0.00534308      -0.00361241       0.00816160
H       11.39692979       8.58197840      11.96705343      -0.00893385      -0.00083531       0.00334466
H       11.20411127       7.54614363      10.53066103      -0.00587289      -0.00063636       0.00279733
H       11.03724327       8.55031156       8.24306512       0.00779627      -0.00129514       0.00195693
H       11.15059218      10.31109549       8.00802478       0.00859595      -0.00135981       0.00195351
H       12.59073617       9.37801643       8.46601902       0.00681293      -0.00115378       0.00815580
H       10.29773239      11.97941959      11.90490999       0.00919676       0.00907032      -0.01577818
H        7.96338238      11.44201128      11.53937937       0.00765317      -0.00276144       0.01224026
H        9.25905648      12.47113800       9.75330601      -0.01631470      -0.00208319      -0.00596248
25
Lattice="20.0 0.0 0.0 0.0 20.0 0.0 0.0 0.0 20.0" Properties=species:S:1:pos:R:3:forces:R:3 mode=1 frequency_thz=-1.0078716473 interpolation_step=7 pbc="T T T"
C        7.86401709       9.38104604       8.88422080      -0.03374960       0.02123242       0.02048029
C        8.85888671       8.93193443       9.95430115      -0.00147020       0.00536360      -0.01367407
C        8.12159530       8.39512525      11.17923123       0.03343187      -0.02854154      -0.00684198
N        9.79687679       9.99462773      10.30569350      -0.00190562       0.00580392      -0.01460238
C       11.21383233       9.68149328      10.09964897      -0.00013020      -0.00269734       0.00849800
C       11.64786303       8.46865633      10.91625783      -0.01865454      -0.00496976       0.01471352
C       11.51948238       9.46794126       8.61983784       0.02132695      -0.00403442       0.01259226
Si       9.30162160      11.53231040      10.88998735       0.00051404       0.00798667      -0.01843973
H        7.28024410       8.50724805       8.56124311      -0.00748394       0.00570789       0.00269664
H        8.41363140       9.75411290       7.99606663      -0.01747911       0.01601981       0.00546674
H        7.19508513      10.15104944       9.23058199      -0.01150716      -0.00020602       0.01685984
H        9.46979921       8.10986902       9.56068812      -0.00122412       0.00574586      -0.01398686
H        8.79998511       8.09524422      11.97033106       0.01609514      -0.01385946      -0.00975594
H        7.43266386       9.16975795      11.60066468       0.01251817      -0.01171623       0.00903210
H        7.49975039       7.54234384      10.88992408       0.00784414      -0.00637472      -0.00380899
H       11.79198832      10.55455740      10.44166396      -0.00018817      -0.00167185       0.00489206
H       12.74599661       8.36501986      10.83470073      -0.00534308      -0.00361241       0.00816160
H       11.39603641       8.58189487      11.96738790      -0.00893385      -0.00083531       0.00334466
H       11.20352398       7.54607999      10.53094077      -0.00587289      -0.00063636       0.00279733
H       11.03802290       8.55018204       8.24326081       0.00779627      -0.00129514       0.00195693
H       11.15145177      10.31095951       8.00822013       0.00859595      -0.00135981       0.00195351
H       12.59141746       9.37790105       8.46683460       0.00681293      -0.00115378       0.00815580
H       10.29865207      11.98032662      11.90333218       0.00919676       0.00907032      -0.01577818
H        7.96414770      11.44173514      11.54060340       0.00765317      -0.00276144       0.01224026
H        9.25742501      12.47092968       9.75270976      -0.01631470      -0.00208319      -0.00596248
25
Lattice="20.0 0.0 0.0 0.0 20.0 0.0 0.0 0.0 20.0" Properties=species:S:1:pos:R:3:forces:R:3 mode=1 frequency_thz=-1.0078716473 interpolation_step=8 pbc="T T T"
C        7.86064213       9.38316928       8.88626883      -0.03374960       0.02123242       0.02048029
C        8.85873969       8.93247079       9.95293375      -0.00147020       0.00536360      -0.01367407
C        8.12493849       8.39227110      11.17854703       0.03343187      -0.02854154      -0.00684198
N        9.79668623       9.99520813      10.30423326      -0.00190562       0.00580392      -0.01460238
C       11.21381931       9.68122354      10.10049877      -0.00013020      -0.00269734       0.00849800
C       11.64599758       8.46815935      10.91772919      -0.01865454      -0.00496976       0.01471352
C       11.52161508       9.46753781       8.62109707       0.02132695      -0.00403442       0.01259226
Si       9.30167300      11.53310906      10.88814337       0.00051404       0.00798667      -0.01843973
H        7.27949571       8.50781884       8.56151277      -0.00748394       0.00570789       0.00269664
H        8.41188349       9.75571488       7.99661331      -0.01747911       0.01601981       0.00546674
H        7.19393442      10.15102883       9.23226797      -0.01150716      -0.00020602       0.01685984
H        9.46967680       8.11044361       9.55928944      -0.00122412       0.00574586      -0.01398686
H        8.80159463       8.09385827      11.96935546       0.01609514      -0.01385946      -0.00975594
H        7.43391568       9.16858633      11.60156789       0.01251817      -0.01171623       0.00903210
H        7.50053480       7.54170637      10.88954318       0.00784414      -0.00637472      -0.00380899
H       11.79196950      10.55439022      10.44215316      -0.00018817      -0.00167185       0.00489206
H       12.74546230       8.36465862      10.83551689      -0.00534308      -0.00361241       0.00816160
H       11.39514302       8.58181133      11.96772237      -0.00893385      -0.00083531       0.00334466
H       11.20293669       7.54601636      10.53122050      -0.00587289      -0.00063636       0.00279733
H       11.03880252       8.55005253       8.24345650       0.00779627      -0.00129514       0.00195693
H       11.15231137      10.31082353       8.00841548       0.00859595      -0.00135981       0.00195351
H       12.59209875       9.37778568       8.46765018       0.00681293      -0.00115378       0.00815580
H       10.29957174      11.98123366      11.90175436       0.00919676       0.00907032      -0.01577818
H        7.96491302      11.44145899      11.54182743       0.00765317      -0.00276144       0.01224026
H        9.25579354      12.47072136       9.75211351      -0.01631470      -0.00208319      -0.00596248
25
Lattice="20.0 0.0 0.0 0.0 20.0 0.0 0.0 0.0 20.0" Properties=species:S:1:pos:R:3:forces:R:3 mode=1 frequency_thz=-1.0078716473 interpolation_step=9 pbc="T T T"
C        7.85726717       9.38529252       8.88831686      -0.03374960       0.02123242       0.02048029
C        8.85859267       8.93300715       9.95156634      -0.00147020       0.00536360      -0.01367407
C        8.12828167       8.38941694      11.17786283       0.03343187      -0.02854154      -0.00684198
N        9.79649567       9.99578852      10.30277302      -0.00190562       0.00580392      -0.01460238
C       11.21380629       9.68095381      10.10134857      -0.00013020      -0.00269734       0.00849800
C       11.64413212       8.46766238      10.91920054      -0.01865454      -0.00496976       0.01471352
C       11.52374777       9.46713437       8.62235629       0.02132695      -0.00403442       0.01259226
Si       9.30172441      11.53390773      10.88629940       0.00051404       0.00798667      -0.01843973
H        7.27874731       8.50838963       8.56178244      -0.00748394       0.00570789       0.00269664
H        8.41013558       9.75731686       7.99715998      -0.01747911       0.01601981       0.00546674
H        7.19278370      10.15100823       9.23395396      -0.01150716      -0.00020602       0.01685984
H        9.46955438       8.11101819       9.55789075      -0.00122412       0.00574586      -0.01398686
H        8.80320414       8.09247233      11.96837987       0.01609514      -0.01385946      -0.00975594
H        7.43516750       9.16741470      11.60247110       0.01251817      -0.01171623       0.00903210
H        7.50131922       7.54106890      10.88916228       0.00784414      -0.00637472      -0.00380899
H       11.79195068      10.55422303      10.44264237      -0.00018817      -0.00167185       0.00489206
H       12.74492800       8.36429738      10.83633305      -0.00534308      -0.00361241       0.00816160
H       11.39424964       8.58172780      11.96805683      -0.00893385      -0.00083531       0.00334466
H       11.20234940       7.54595272      10.53150024      -0.00587289      -0.00063636       0.00279733
H       11.03958215       8.54992302       8.24365220       0.00779627      -0.00129514       0.00195693
H       11.15317096      10.31068755       8.00861083       0.00859595      -0.00135981       0.00195351
H       12.59278005       9.37767030       8.46846576       0.00681293      -0.00115378       0.00815580
H       10.30049142      11.98214069      11.90017654       0.00919676       0.00907032      -0.01577818
H        7.96567834      11.44118285      11.54305145       0.00765317      -0.00276144       0.01224026
H        9.25416207      12.47051305       9.75151726      -0.01631470      -0.00208319      -0.00596248
25
Lattice="20.0 0.0 0.0 0.0 20.0 0.0 0.0 0.0 20.0" Properties=species:S:1:pos:R:3:forces:R:3 mode=1 frequency_thz=-1.0078716473 interpolation_step=10 pbc="T T T"
C        7.85389221       9.38741576       8.89036489      -0.03374960       0.02123242       0.02048029
C        8.85844565       8.93354351       9.95019893      -0.00147020       0.00536360      -0.01367407
C        8.13162486       8.38656279      11.17717863       0.03343187      -0.02854154      -0.00684198
N        9.79630511       9.99636891      10.30131279      -0.00190562       0.00580392      -0.01460238
C       11.21379327       9.68068407      10.10219837      -0.00013020      -0.00269734       0.00849800
C       11.64226667       8.46716540      10.92067189      -0.01865454      -0.00496976       0.01471352
C       11.52588047       9.46673093       8.62361552       0.02132695      -0.00403442       0.01259226
Si       9.30177581      11.53470640      10.88445542       0.00051404       0.00798667      -0.01843973
H        7.27799892       8.50896042       8.56205210      -0.00748394       0.00570789       0.00269664
H        8.40838767       9.75891884       7.99770665      -0.01747911       0.01601981       0.00546674
H        7.19163298      10.15098763       9.23563994      -0.01150716      -0.00020602       0.01685984
H        9.46943197       8.11159278       9.55649206      -0.00122412       0.00574586      -0.01398686
H        8.80481365       8.09108638      11.96740427       0.01609514      -0.01385946      -0.00975594
H        7.43641932       9.16624308      11.60337431       0.01251817      -0.01171623       0.00903210
H        7.50210363       7.54043143      10.88878139       0.00784414      -0.00637472      -0.00380899
H       11.79193187      10.55405585      10.44313158      -0.00018817      -0.00167185       0.00489206
H       12.74439369       8.36393614      10.83714920      -0.00534308      -0.00361241       0.00816160
H       11.39335625       8.58164427      11.96839130      -0.00893385      -0.00083531       0.00334466