65
Lattice="7.6805938572482795 0.0 0.0 1.4742436768531998e-16 7.6805938572482795 0.0 0.0 0.0 30.78875" Properties=species:S:1:pos:R:3:tags:I:1:forces:R:3:energies:R:1 energy=-310.50146484375 stress="-0.000620866019744426 -1.2764000985043822e-06 -2.260559313072008e-06 -1.2764000985043822e-06 -5.150045035406947e-05 3.4944296203320846e-06 -2.260559313072008e-06 3.4944296203320846e-06 -1.0610514436848462e-05" free_energy=-310.50146484375 pbc="T T F"
Si      -0.00129684       0.00410204      12.01414915        3      -0.00151448       0.00158023       0.03239447      -5.48392057
Si      -0.00322996       1.92133432      13.36366597        3      -0.00424287       0.01360360       0.00161017      -5.47475004
Si       1.91598905       1.92460207      14.75168429        2       0.00209699      -0.01602925       0.00863717      -5.41166925
Si       1.92121468       0.00407993      16.14756589        2       0.01021036       0.00022991      -0.04044215      -5.41665506
Si       0.00263665      -0.00352756      17.52528442        1      -0.00190734       0.00351210       0.01895469      -5.47855091
Si      -0.02023781       1.90692367      18.87169831        1      -0.01093261       0.00392070      -0.06392658      -5.47756004
Si      -0.00148258       3.84388463      12.01844241        3      -0.00090978       0.00098534       0.02799506      -5.48129225
Si      -0.00291563       5.76722755      13.36308893        3      -0.00412158      -0.01058148      -0.00270478      -5.47486448
Si       1.91536514       5.76604191      14.75036221        2       0.00375266       0.01746777       0.00837420      -5.41241264
Si       1.90330243       3.84685004      16.13783197        2       0.00711551       0.00072097      -0.00559467      -5.41474676
Si      -0.01295771       3.83868209      17.53290915        1       0.01004394       0.00785249      -0.01037458      -5.47230864
Si      -0.02677115       5.76584536      18.87263264        1      -0.00926360       0.00776368      -0.05822171      -5.48558807
Si       3.84003675       0.00366615      12.01464297        3      -0.00208090       0.00286855       0.03471891      -5.48303509
Si       3.83784754       1.92183358      13.36396576        3      -0.00091391       0.01865411      -0.00187045      -5.47465372
Si       5.75761502       1.92454554      14.75302649        2      -0.00380776      -0.02420863       0.00085311      -5.41169357
Si       5.75604584       0.00403302      16.15114871        2      -0.01325113       0.00151544      -0.03853428      -5.41516256
Si       3.83590197       0.01025245      17.54739326        1      -0.00202229      -0.00600126       0.02136017      -5.48557711
Si       3.82341140       1.95183207      18.85576877        1       0.00973959      -0.01800118      -0.02622212      -5.49828577
Si       3.84048282       3.84449083      12.01698942        3      -0.00224364      -0.00028540       0.03182619      -5.48194218
Si       3.83814643       5.76685790      13.36493593        3      -0.00064499      -0.01575062      -0.00994389      -5.47402287
Si       5.75887343       5.76633852      14.75185097        2      -0.00588690       0.02624564       0.00071189      -5.41258192
Si       5.75671565       3.84722764      16.13573106        2      -0.00251878       0.00069048      -0.00423199      -5.41669607
Si       3.83013802       3.85936544      17.50327891        1      -0.00469702      -0.00471943       0.00008827      -5.46992540
Si       3.81509467       5.76105117      18.87456343        1       0.00322974       0.00886735      -0.03996320      -5.51539803
H        1.08365195       1.91910785      19.85470878        0       0.03958063       0.00610891       0.04820784      -3.08752036
H        4.91314730       5.71798845      19.86225922        0       0.03963031       0.00543180       0.01842947      -3.07950592
H        4.92608235       1.99419159      19.83664410        0       0.04318602      -0.00268440       0.01813060      -3.08589649
H        1.06598419       5.75786054      19.86889363        0       0.03557798      -0.00448626       0.04256833      -3.08009720
H        2.70177456       1.98526950      19.81310873        0      -0.05776607       0.00824723       0.01525294      -3.10606241
H        6.51632791       5.79488623      19.81170435        0      -0.03029805      -0.00939187       0.03631188      -3.08263302
H        6.52846206       1.87318359      19.81940874        0      -0.01400746       0.00364657       0.04545491      -3.08474874
H        2.68339369       5.72231948      19.82087693        0      -0.04070981       0.00484495       0.02518003      -3.08583069
H        4.95618486       0.00422019      11.04757803        0       0.02918451      -0.00077855      -0.01166674      -3.08966112
H        1.11714704       3.84300490      11.05408661        0       0.02727497       0.00050646      -0.01492774      -3.08925056
H        4.95692973       3.84392590      11.04945369        0       0.02403308       0.00081586      -0.00839273      -3.08937168
H        1.11698124       0.00503286      11.04977974        0       0.02832958      -0.00053903      -0.01572836      -3.08969235
H        6.56392373       0.00424948      11.04641796        0      -0.03001755      -0.00020509      -0.01728849      -3.09011030
H        6.56391597       3.84366688      11.05003291        0      -0.02782895       0.00025923      -0.01568108      -3.08960390
H        2.72355886       0.00384279      11.04811628        0      -0.03032835      -0.00089076      -0.01543310      -3.08984089
H        2.72332551       3.84441532      11.05045904        0      -0.02597444       0.00083499      -0.01221409      -3.08962154
C       -0.12099281       0.03822437      22.68807328        0      -0.03046721       0.02552687       0.00125090      -9.13318539
C        0.98359122      -0.45777459      23.62895376        0       0.00033936      -0.05033684      -0.01120161      -9.40752125
C        0.40022349      -1.22669314      24.83030884        0      -0.00498826       0.01337805       0.04675630      -9.05403709
N        1.87205868       0.64778704      24.02566509        0      -0.01137069      -0.11714748       0.02139200      -7.74427223
C        3.30187883       0.43317036      23.80458912        0      -0.05905962      -0.01872060       0.03333129      -9.38218880
C        3.87158980      -0.74066945      24.63208892        0       0.01748023       0.03144921      -0.00500061      -9.01966667
C        3.65401160       0.21452476      22.31178150        0       0.02655299       0.02246573      -0.00023727      -9.09847164
Si       1.25964215       2.19784959      24.59536954        0      -0.00045303       0.09582758      -0.00744443      -6.37691832
H       -0.76375505      -0.80639912      22.41259601        0       0.02024482      -0.05467674      -0.00697635      -3.69427276
H        0.28277517       0.47513869      21.76262419        0       0.00825518       0.02096223       0.01029520      -3.67078137
H       -0.74220527       0.79765961      23.18320883        0      -0.09218720       0.00968059      -0.00432408      -3.67729616
H        1.57814124      -1.20015085      23.06789029        0       0.06119183      -0.05655347      -0.05345611      -3.55207515
H        1.19148508      -1.61633767      25.48558482        0      -0.00365111       0.02693307      -0.00803131      -3.72007060
H       -0.26906320      -0.58909234      25.42593194        0       0.01938367       0.01381439       0.02764800      -3.71141577
H       -0.17542661      -2.08815550      24.46364124        0      -0.01987630       0.00360525      -0.05416713      -3.71675348
H        3.80053219       1.36281776      24.14307051        0      -0.06419086      -0.03027858      -0.02918835      -3.55165482
H        4.96465926      -0.75011982      24.51391857        0       0.00190989      -0.04047398       0.01055760      -3.71553087
H        3.63703898      -0.63087758      25.70018088        0      -0.00794407      -0.01325956      -0.02796417      -3.72073627
H        3.48962343      -1.71186666      24.27890071        0       0.01650134       0.06629675       0.01010017      -3.72443366
H        3.25005116      -0.73242078      21.92491127        0       0.04649530       0.03247821       0.02106891      -3.69355392
H        3.27976060       1.03336764      21.68458315        0       0.00836668       0.01472303       0.00859366      -3.67851949
H        4.74380440       0.17341677      22.21876557        0       0.01797580      -0.00467453      -0.07415203      -3.71509457
H        2.12271097       2.67365268      25.72582052        0      -0.01846414       0.02081994      -0.01607522      -3.11251664
H       -0.15578311       2.03348705      25.08123101        0       0.05333833      -0.00501637       0.04665124      -3.10823631
H        1.26753085       3.22920486      23.50529405        0       0.02952161      -0.03944390       0.03687629      -3.08956671
