nqpoint: 1      
natom:   25     
reciprocal_lattice:
- [   0.05000000,   0.00000000,   0.00000000 ] # a*
- [   0.00000000,   0.05000000,   0.00000000 ] # b*
- [   0.00000000,   0.00000000,   0.05000000 ] # c*
phonon:
- q-position: [    0.0000000,    0.0000000,    0.0000000 ]
  band:
  - # 1
    frequency:   -0.1237455966
    eigenvector:
    - # atom 1
      - [  0.02222822535074,  0.00000000000000 ]
      - [  0.39210887991646,  0.00000000000000 ]
      - [ -0.11832555843977,  0.00000000000000 ]
    - # atom 2
      - [ -0.09100800211538,  0.00000000000000 ]
      - [  0.14365396232016,  0.00000000000000 ]
      - [ -0.11606789626895,  0.00000000000000 ]
    - # atom 3
      - [ -0.22822658541137,  0.00000000000000 ]
      - [  0.13102536713061,  0.00000000000000 ]
      - [ -0.19999026837988,  0.00000000000000 ]
    - # atom 4
      - [  0.05424831161076,  0.00000000000000 ]
      - [ -0.02885551327143,  0.00000000000000 ]
      - [  0.02653729817677,  0.00000000000000 ]
    - # atom 5
      - [  0.00985405066273,  0.00000000000000 ]
      - [ -0.21776639296692,  0.00000000000000 ]
      - [  0.05222195063105,  0.00000000000000 ]
    - # atom 6
      - [ -0.20102540178895,  0.00000000000000 ]
      - [ -0.35276716590595,  0.00000000000000 ]
      - [ -0.04075183483598,  0.00000000000000 ]
    - # atom 7
      - [  0.03672040481747,  0.00000000000000 ]
      - [ -0.13349192028715,  0.00000000000000 ]
      - [  0.04544239358143,  0.00000000000000 ]
    - # atom 8
      - [  0.38409477453608,  0.00000000000000 ]
      - [ -0.01575400655448,  0.00000000000000 ]
      - [  0.23132177582503,  0.00000000000000 ]
    - # atom 9
      - [ -0.02602248406980,  0.00000000000000 ]
      - [  0.14758083247634,  0.00000000000000 ]
      - [ -0.06585268081187,  0.00000000000000 ]
    - # atom 10
      - [  0.03576328846419,  0.00000000000000 ]
      - [  0.11716250013393,  0.00000000000000 ]
      - [ -0.01622128123174,  0.00000000000000 ]
    - # atom 11
      - [  0.03308685587691,  0.00000000000000 ]
      - [  0.13149847026347,  0.00000000000000 ]
      - [ -0.02235837683898,  0.00000000000000 ]
    - # atom 12
      - [ -0.05468231361941,  0.00000000000000 ]
      - [  0.02798026210000,  0.00000000000000 ]
      - [ -0.04759102845169,  0.00000000000000 ]
    - # atom 13
      - [ -0.09016764232238,  0.00000000000000 ]
      - [ -0.01276353575712,  0.00000000000000 ]
      - [ -0.05772695908356,  0.00000000000000 ]
    - # atom 14
      - [ -0.04090767122616,  0.00000000000000 ]
      - [  0.05273188369772,  0.00000000000000 ]
      - [ -0.04632644672613,  0.00000000000000 ]
    - # atom 15
      - [ -0.09827579210746,  0.00000000000000 ]
      - [  0.07198134834474,  0.00000000000000 ]
      - [ -0.08908243488391,  0.00000000000000 ]
    - # atom 16
      - [  0.03539294419822,  0.00000000000000 ]
      - [ -0.09686020215914,  0.00000000000000 ]
      - [  0.04467794115386,  0.00000000000000 ]
    - # atom 17
      - [ -0.06257463085530,  0.00000000000000 ]
      - [ -0.14729421995608,  0.00000000000000 ]
      - [ -0.00189857534102,  0.00000000000000 ]
    - # atom 18
      - [ -0.06578932950101,  0.00000000000000 ]
      - [ -0.11735870926182,  0.00000000000000 ]
      - [ -0.01224442647824,  0.00000000000000 ]
    - # atom 19
      - [ -0.09277034281073,  0.00000000000000 ]
      - [ -0.07300406356931,  0.00000000000000 ]
      - [ -0.04132172551395,  0.00000000000000 ]
    - # atom 20
      - [ -0.02308494945265,  0.00000000000000 ]
      - [ -0.00968474757473,  0.00000000000000 ]
      - [ -0.01619682045958,  0.00000000000000 ]
    - # atom 21
      - [  0.05261422657076,  0.00000000000000 ]
      - [ -0.00851238094147,  0.00000000000000 ]
      - [  0.03102025146769,  0.00000000000000 ]
    - # atom 22
      - [  0.00800055794120,  0.00000000000000 ]
      - [ -0.08066544020327,  0.00000000000000 ]
      - [  0.02330307976116,  0.00000000000000 ]
    - # atom 23
      - [  0.08109814826499,  0.00000000000000 ]
      - [ -0.07398636376605,  0.00000000000000 ]
      - [  0.07094268813025,  0.00000000000000 ]
    - # atom 24
      - [  0.05917264864273,  0.00000000000000 ]
      - [  0.03333147102733,  0.00000000000000 ]
      - [  0.02375886272223,  0.00000000000000 ]
    - # atom 25
      - [  0.12768008899829,  0.00000000000000 ]
      - [  0.03417350742236,  0.00000000000000 ]
      - [  0.06845204587890,  0.00000000000000 ]
  - # 2
    frequency:   -0.0622862801
    eigenvector:
    - # atom 1
      - [  0.29073897461081,  0.00000000000000 ]
      - [ -0.01257738985186,  0.00000000000000 ]
      - [ -0.09849297253643,  0.00000000000000 ]
    - # atom 2
      - [  0.20319329383756,  0.00000000000000 ]
      - [  0.07167404752865,  0.00000000000000 ]
      - [  0.02537679921372,  0.00000000000000 ]
    - # atom 3
      - [  0.09918824251859,  0.00000000000000 ]
      - [  0.22104251704758,  0.00000000000000 ]
      - [  0.03459557143243,  0.00000000000000 ]
    - # atom 4
      - [  0.22152733391387,  0.00000000000000 ]
      - [  0.09155934587240,  0.00000000000000 ]
      - [ -0.02148167743260,  0.00000000000000 ]
    - # atom 5
      - [  0.20941701089397,  0.00000000000000 ]
      - [  0.03174219938037,  0.00000000000000 ]
      - [  0.11307791004120,  0.00000000000000 ]
    - # atom 6
      - [  0.12179379148562,  0.00000000000000 ]
      - [  0.10941483540645,  0.00000000000000 ]
      - [  0.26935870268950,  0.00000000000000 ]
    - # atom 7
      - [  0.30645043489489,  0.00000000000000 ]
      - [ -0.13156640846695,  0.00000000000000 ]
      - [  0.16008128197727,  0.00000000000000 ]
    - # atom 8
      - [  0.30943504075694,  0.00000000000000 ]
      - [  0.24229345546787,  0.00000000000000 ]
      - [ -0.33095427277255,  0.00000000000000 ]
    - # atom 9
      - [  0.08433082702897,  0.00000000000000 ]
      - [ -0.00903021753754,  0.00000000000000 ]
      - [ -0.01417520363352,  0.00000000000000 ]
    - # atom 10
      - [  0.10610962482078,  0.00000000000000 ]
      - [ -0.03489046819441,  0.00000000000000 ]
      - [ -0.03128619272219,  0.00000000000000 ]
    - # atom 11
      - [  0.08145820533924,  0.00000000000000 ]
      - [  0.01429065960002,  0.00000000000000 ]
      - [ -0.06650852483784,  0.00000000000000 ]
    - # atom 12
      - [  0.06239724676030,  0.00000000000000 ]
      - [  0.00242491869902,  0.00000000000000 ]
      - [  0.04484861359995,  0.00000000000000 ]
    - # atom 13
      - [  0.01048810833752,  0.00000000000000 ]
      - [  0.08194105439543,  0.00000000000000 ]
      - [  0.03590901912664,  0.00000000000000 ]
    - # atom 14
      - [  0.02419030125574,  0.00000000000000 ]
      - [  0.08337736060134,  0.00000000000000 ]
      - [ -0.02685204798342,  0.00000000000000 ]
    - # atom 15
      - [  0.02882429424856,  0.00000000000000 ]
      - [  0.05926659901002,  0.00000000000000 ]
      - [  0.02353886226095,  0.00000000000000 ]
    - # atom 16
      - [  0.05961639143739,  0.00000000000000 ]
      - [  0.01598974010256,  0.00000000000000 ]
      - [  0.01790887445690,  0.00000000000000 ]
    - # atom 17
      - [  0.03531336684723,  0.00000000000000 ]
      - [  0.02286714409197,  0.00000000000000 ]
      - [  0.10376562114295,  0.00000000000000 ]
    - # atom 18
      - [  0.01462873740031,  0.00000000000000 ]
      - [  0.06576968856788,  0.00000000000000 ]
      - [  0.06856239526614,  0.00000000000000 ]
    - # atom 19
      - [  0.03677926367237,  0.00000000000000 ]
      - [  0.02295171966870,  0.00000000000000 ]
      - [  0.09706987397241,  0.00000000000000 ]
    - # atom 20
      - [  0.09035568513838,  0.00000000000000 ]
      - [ -0.04665666991537,  0.00000000000000 ]
      - [  0.06528680281762,  0.00000000000000 ]
    - # atom 21
      - [  0.10670472112748,  0.00000000000000 ]
      - [ -0.05497145881266,  0.00000000000000 ]
      - [  0.01386113883269,  0.00000000000000 ]
    - # atom 22
      - [  0.09050738115273,  0.00000000000000 ]
      - [ -0.04876615953640,  0.00000000000000 ]
      - [  0.07116909019838,  0.00000000000000 ]
    - # atom 23
      - [  0.04266751935046,  0.00000000000000 ]
      - [  0.06739198424532,  0.00000000000000 ]
      - [ -0.05641670616052,  0.00000000000000 ]
    - # atom 24
      - [  0.04351670158589,  0.00000000000000 ]
      - [  0.07680831296132,  0.00000000000000 ]
      - [ -0.08637445590330,  0.00000000000000 ]
    - # atom 25
      - [  0.08911678345339,  0.00000000000000 ]
      - [  0.01139383717337,  0.00000000000000 ]
      - [ -0.09313619425105,  0.00000000000000 ]
  - # 3
    frequency:    0.0209173527
    eigenvector:
    - # atom 1
      - [  0.02669141921252,  0.00000000000000 ]
      - [ -0.29440540318873,  0.00000000000000 ]
      - [ -0.00454916822145,  0.00000000000000 ]
    - # atom 2
      - [ -0.04774224174360,  0.00000000000000 ]
      - [ -0.24325688835302,  0.00000000000000 ]
      - [  0.09176042814902,  0.00000000000000 ]
    - # atom 3
      - [ -0.13623081939107,  0.00000000000000 ]
      - [ -0.16209669844924,  0.00000000000000 ]
      - [  0.07851238298561,  0.00000000000000 ]
    - # atom 4
      - [ -0.06467566332398,  0.00000000000000 ]
      - [ -0.25088347265856,  0.00000000000000 ]
      - [  0.09829915628282,  0.00000000000000 ]
    - # atom 5
      - [ -0.05158388048168,  0.00000000000000 ]
      - [ -0.25721095068839,  0.00000000000000 ]
      - [  0.20452970556578,  0.00000000000000 ]
    - # atom 6
      - [ -0.11934096099624,  0.00000000000000 ]
      - [ -0.21227034964121,  0.00000000000000 ]
      - [  0.30330493993755,  0.00000000000000 ]
    - # atom 7
      - [  0.04385541950057,  0.00000000000000 ]
      - [ -0.34762693496549,  0.00000000000000 ]
      - [  0.24003883146511,  0.00000000000000 ]
    - # atom 8
      - [ -0.12641963094131,  0.00000000000000 ]
      - [ -0.29422138753492,  0.00000000000000 ]
      - [ -0.05141909368572,  0.00000000000000 ]
    - # atom 9
      - [  0.01129500094939,  0.00000000000000 ]
      - [ -0.08900127477269,  0.00000000000000 ]
      - [  0.00208858009701,  0.00000000000000 ]
    - # atom 10
      - [  0.02621402157977,  0.00000000000000 ]
      - [ -0.10209124400461,  0.00000000000000 ]
      - [  0.00094730210286,  0.00000000000000 ]
    - # atom 11
      - [  0.00214113858932,  0.00000000000000 ]
      - [ -0.07613914102741,  0.00000000000000 ]
      - [ -0.02776332695386,  0.00000000000000 ]
    - # atom 12
      - [ -0.00756871603814,  0.00000000000000 ]
      - [ -0.08007270294224,  0.00000000000000 ]
      - [  0.05219743680198,  0.00000000000000 ]
    - # atom 13
      - [ -0.05500149103524,  0.00000000000000 ]
      - [ -0.03609962403121,  0.00000000000000 ]
      - [  0.04279392007556,  0.00000000000000 ]
    - # atom 14
      - [ -0.04642390699235,  0.00000000000000 ]
      - [ -0.03685489421303,  0.00000000000000 ]
      - [ -0.00291588371996,  0.00000000000000 ]
    - # atom 15
      - [ -0.03618494269430,  0.00000000000000 ]
      - [ -0.05033840558029,  0.00000000000000 ]
      - [  0.02564907675641,  0.00000000000000 ]
    - # atom 16
      - [ -0.01921945711875,  0.00000000000000 ]
      - [ -0.07012579732273,  0.00000000000000 ]
      - [  0.05548336865435,  0.00000000000000 ]
    - # atom 17
      - [ -0.03410548991295,  0.00000000000000 ]
      - [ -0.06528437491049,  0.00000000000000 ]
      - [  0.11104577176656,  0.00000000000000 ]
    - # atom 18
      - [ -0.05468636804561,  0.00000000000000 ]
      - [ -0.04274460250544,  0.00000000000000 ]
      - [  0.08022413991141,  0.00000000000000 ]
    - # atom 19
      - [ -0.02961148078355,  0.00000000000000 ]
      - [ -0.06686091213980,  0.00000000000000 ]
      - [  0.09490020862948,  0.00000000000000 ]
    - # atom 20
      - [  0.01734059272072,  0.00000000000000 ]
      - [ -0.10588117183572,  0.00000000000000 ]
      - [  0.07643161389943,  0.00000000000000 ]
    - # atom 21
      - [  0.02698045748124,  0.00000000000000 ]
      - [ -0.11043362613901,  0.00000000000000 ]
      - [  0.04865998866686,  0.00000000000000 ]
    - # atom 22
      - [  0.01468786799500,  0.00000000000000 ]
      - [ -0.10578348049915,  0.00000000000000 ]
      - [  0.09204920103690,  0.00000000000000 ]
    - # atom 23
      - [ -0.04088855826946,  0.00000000000000 ]
      - [ -0.04245689352881,  0.00000000000000 ]
      - [  0.00178951236044,  0.00000000000000 ]
    - # atom 24
      - [ -0.03781189550038,  0.00000000000000 ]
      - [ -0.03962069225848,  0.00000000000000 ]
      - [ -0.03322801605614,  0.00000000000000 ]
    - # atom 25
      - [  0.00131129811814,  0.00000000000000 ]
      - [ -0.07540752100049,  0.00000000000000 ]
      - [ -0.02782334384605,  0.00000000000000 ]
  - # 4
    frequency:    0.0581355494
    eigenvector:
    - # atom 1
      - [  0.09947616938824,  0.00000000000000 ]
      - [ -0.15422469328053,  0.00000000000000 ]
      - [ -0.17720046504279,  0.00000000000000 ]
    - # atom 2
      - [  0.13143854156547,  0.00000000000000 ]
      - [ -0.16602441880825,  0.00000000000000 ]
      - [ -0.21405097797782,  0.00000000000000 ]
    - # atom 3
      - [  0.16961650569119,  0.00000000000000 ]
      - [ -0.20832838629506,  0.00000000000000 ]
      - [ -0.21171453157876,  0.00000000000000 ]
    - # atom 4
      - [  0.13423536647646,  0.00000000000000 ]
      - [ -0.17422768620635,  0.00000000000000 ]
      - [ -0.22591535852987,  0.00000000000000 ]
    - # atom 5
      - [  0.12482435326275,  0.00000000000000 ]
      - [ -0.13631642428201,  0.00000000000000 ]
      - [ -0.25124461327836,  0.00000000000000 ]
    - # atom 6
      - [  0.16201733551269,  0.00000000000000 ]
      - [ -0.15205909257440,  0.00000000000000 ]
      - [ -0.29242454215364,  0.00000000000000 ]
    - # atom 7
      - [  0.09321174099543,  0.00000000000000 ]
      - [ -0.09310839653752,  0.00000000000000 ]
      - [ -0.26499963625063,  0.00000000000000 ]
    - # atom 8
      - [  0.17705971320422,  0.00000000000000 ]
      - [ -0.28080856063127,  0.00000000000000 ]
      - [ -0.24112100707336,  0.00000000000000 ]
    - # atom 9
      - [  0.03029156660994,  0.00000000000000 ]
      - [ -0.04482457040764,  0.00000000000000 ]
      - [ -0.05368048762347,  0.00000000000000 ]
    - # atom 10
      - [  0.02078227901800,  0.00000000000000 ]
      - [ -0.03588343522619,  0.00000000000000 ]
      - [ -0.05160686406985,  0.00000000000000 ]
    - # atom 11
      - [  0.02842847741738,  0.00000000000000 ]
      - [ -0.05071636043351,  0.00000000000000 ]
      - [ -0.04079312742499,  0.00000000000000 ]
    - # atom 12
      - [  0.03833759559824,  0.00000000000000 ]
      - [ -0.04214310291295,  0.00000000000000 ]
      - [ -0.07230032725375,  0.00000000000000 ]
    - # atom 13
      - [  0.05582441842577,  0.00000000000000 ]
      - [ -0.06288838017340,  0.00000000000000 ]
      - [ -0.06899178228922,  0.00000000000000 ]
    - # atom 14
      - [  0.04925256264973,  0.00000000000000 ]
      - [ -0.06669574863023,  0.00000000000000 ]
      - [ -0.05116334232969,  0.00000000000000 ]
    - # atom 15
      - [  0.05070177029161,  0.00000000000000 ]
      - [ -0.06074639233321,  0.00000000000000 ]
      - [ -0.06346904411358,  0.00000000000000 ]
    - # atom 16
      - [  0.03498745385196,  0.00000000000000 ]
      - [ -0.03977295606051,  0.00000000000000 ]
      - [ -0.07019317915131,  0.00000000000000 ]
    - # atom 17
      - [  0.04713679723597,  0.00000000000000 ]
      - [ -0.03915236264446,  0.00000000000000 ]
      - [ -0.09303135009873,  0.00000000000000 ]
    - # atom 18
      - [  0.05361296981998,  0.00000000000000 ]
      - [ -0.05322652029605,  0.00000000000000 ]
      - [ -0.08186443360403,  0.00000000000000 ]
    - # atom 19
      - [  0.04817803802616,  0.00000000000000 ]
      - [ -0.04300023858530,  0.00000000000000 ]
      - [ -0.08865218283231,  0.00000000000000 ]
    - # atom 20
      - [  0.02816654609875,  0.00000000000000 ]
      - [ -0.02601725187520,  0.00000000000000 ]
      - [ -0.08056130899707,  0.00000000000000 ]
    - # atom 21
      - [  0.01934456876385,  0.00000000000000 ]
      - [ -0.02365620131423,  0.00000000000000 ]
      - [ -0.06810864905465,  0.00000000000000 ]
    - # atom 22
      - [  0.02659404596570,  0.00000000000000 ]
      - [ -0.02166990997386,  0.00000000000000 ]
      - [ -0.08493716082647,  0.00000000000000 ]
    - # atom 23
      - [  0.03813421869204,  0.00000000000000 ]
      - [ -0.05591002079010,  0.00000000000000 ]
      - [ -0.04924808130848,  0.00000000000000 ]
    - # atom 24
      - [  0.03888337950900,  0.00000000000000 ]
      - [ -0.06397208624251,  0.00000000000000 ]
      - [ -0.03729042772809,  0.00000000000000 ]
    - # atom 25
      - [  0.02149551188168,  0.00000000000000 ]
      - [ -0.04501182947860,  0.00000000000000 ]
      - [ -0.03800647803805,  0.00000000000000 ]
  - # 5
    frequency:    0.0728798739
    eigenvector:
    - # atom 1
      - [  0.10099626578305,  0.00000000000000 ]
      - [ -0.01006108351214,  0.00000000000000 ]
      - [  0.28217726636818,  0.00000000000000 ]
    - # atom 2
      - [  0.17251615064817,  0.00000000000000 ]
      - [ -0.05614977239414,  0.00000000000000 ]
      - [  0.19085045459144,  0.00000000000000 ]
    - # atom 3
      - [  0.25790013316923,  0.00000000000000 ]
      - [ -0.14800263524683,  0.00000000000000 ]
      - [  0.19746653665122,  0.00000000000000 ]
    - # atom 4
      - [  0.18687960940791,  0.00000000000000 ]
      - [ -0.06490049552430,  0.00000000000000 ]
      - [  0.21790458888177,  0.00000000000000 ]
    - # atom 5
      - [  0.16847413538977,  0.00000000000000 ]
      - [ -0.01951094262270,  0.00000000000000 ]
      - [  0.08952108327777,  0.00000000000000 ]
    - # atom 6
      - [  0.24664862297172,  0.00000000000000 ]
      - [ -0.06497271635641,  0.00000000000000 ]
      - [ -0.01511081457001,  0.00000000000000 ]
    - # atom 7
      - [  0.07867989669279,  0.00000000000000 ]
      - [  0.08280655355005,  0.00000000000000 ]
      - [  0.05348432720562,  0.00000000000000 ]
    - # atom 8
      - [  0.27306093008103,  0.00000000000000 ]
      - [ -0.16552510871360,  0.00000000000000 ]
      - [  0.50996120267293,  0.00000000000000 ]
    - # atom 9
      - [  0.02833009637380,  0.00000000000000 ]
      - [ -0.00029214892989,  0.00000000000000 ]
      - [  0.07638930830499,  0.00000000000000 ]
    - # atom 10
      - [  0.01143087257972,  0.00000000000000 ]
      - [  0.01593725974008,  0.00000000000000 ]
      - [  0.08081117666810,  0.00000000000000 ]
    - # atom 11
      - [  0.03231341322458,  0.00000000000000 ]
      - [ -0.01408225271630,  0.00000000000000 ]
      - [  0.10763917539851,  0.00000000000000 ]
    - # atom 12
      - [  0.04658774559205,  0.00000000000000 ]
      - [ -0.00465652669062,  0.00000000000000 ]
      - [  0.02999503895166,  0.00000000000000 ]
    - # atom 13
      - [  0.08973491920377,  0.00000000000000 ]
      - [ -0.05217081286250,  0.00000000000000 ]
      - [  0.03839989632523,  0.00000000000000 ]
    - # atom 14
      - [  0.07843279339159,  0.00000000000000 ]
      - [ -0.05537282073936,  0.00000000000000 ]
      - [  0.08215171922555,  0.00000000000000 ]
    - # atom 15
      - [  0.07464464432102,  0.00000000000000 ]
      - [ -0.04112683671284,  0.00000000000000 ]
      - [  0.05233598801199,  0.00000000000000 ]
    - # atom 16
      - [  0.05025414012017,  0.00000000000000 ]
      - [ -0.00890718757785,  0.00000000000000 ]
      - [  0.03151862445255,  0.00000000000000 ]
    - # atom 17
      - [  0.07138743635451,  0.00000000000000 ]
      - [ -0.01153307045191,  0.00000000000000 ]
      - [ -0.02662362967754,  0.00000000000000 ]
    - # atom 18
      - [  0.09011046609028,  0.00000000000000 ]
      - [ -0.04030583551652,  0.00000000000000 ]
      - [  0.00318320062565,  0.00000000000000 ]
    - # atom 19
      - [  0.06979707810002,  0.00000000000000 ]
      - [ -0.01420080760374,  0.00000000000000 ]
      - [ -0.01343837186252,  0.00000000000000 ]
    - # atom 20
      - [  0.02166087574012,  0.00000000000000 ]
      - [  0.02805965333434,  0.00000000000000 ]
      - [  0.00691728452776,  0.00000000000000 ]
    - # atom 21
      - [  0.00590386370887,  0.00000000000000 ]
      - [  0.03344611959532,  0.00000000000000 ]
      - [  0.03745130621838,  0.00000000000000 ]
    - # atom 22
      - [  0.02122574190585,  0.00000000000000 ]
      - [  0.03308796908646,  0.00000000000000 ]
      - [ -0.00653691584896,  0.00000000000000 ]
    - # atom 23
      - [  0.06621286805444,  0.00000000000000 ]
      - [ -0.04337298458879,  0.00000000000000 ]
      - [  0.08709107073603,  0.00000000000000 ]
    - # atom 24
      - [  0.06503257412324,  0.00000000000000 ]
      - [ -0.05219586223014,  0.00000000000000 ]
      - [  0.11833902991546,  0.00000000000000 ]
    - # atom 25
      - [  0.02528806795154,  0.00000000000000 ]
      - [ -0.01004666381559,  0.00000000000000 ]
      - [  0.11610932882877,  0.00000000000000 ]
  - # 6
    frequency:    0.1334097433
    eigenvector:
    - # atom 1
      - [  0.20757191798834,  0.00000000000000 ]
      - [  0.03963625886708,  0.00000000000000 ]
      - [ -0.28013054358406,  0.00000000000000 ]
    - # atom 2
      - [  0.10757853482449,  0.00000000000000 ]
      - [ -0.00446798092504,  0.00000000000000 ]
      - [ -0.20051478159846,  0.00000000000000 ]
    - # atom 3
      - [ -0.01005800585783,  0.00000000000000 ]
      - [ -0.18888311206626,  0.00000000000000 ]
      - [ -0.35218021479833,  0.00000000000000 ]
    - # atom 4
      - [ -0.00997059170537,  0.00000000000000 ]
      - [  0.02271430048796,  0.00000000000000 ]
      - [  0.03973157758537,  0.00000000000000 ]
    - # atom 5
      - [  0.03552757980054,  0.00000000000000 ]
      - [  0.13507254857800,  0.00000000000000 ]
      - [  0.18715971296881,  0.00000000000000 ]
    - # atom 6
      - [  0.00713282233106,  0.00000000000000 ]
      - [  0.06835601180434,  0.00000000000000 ]
      - [  0.10380006252662,  0.00000000000000 ]
    - # atom 7
      - [  0.24416341872010,  0.00000000000000 ]
      - [  0.32356071391982,  0.00000000000000 ]
      - [  0.20583795838667,  0.00000000000000 ]
    - # atom 8
      - [ -0.28813011539009,  0.00000000000000 ]
      - [ -0.11561438090392,  0.00000000000000 ]
      - [  0.21364638481895,  0.00000000000000 ]
    - # atom 9
      - [  0.08938950419259,  0.00000000000000 ]
      - [  0.00978930722502,  0.00000000000000 ]
      - [ -0.13093479554565,  0.00000000000000 ]
    - # atom 10
      - [  0.08412566296069,  0.00000000000000 ]
      - [  0.04986401742088,  0.00000000000000 ]
      - [ -0.04940843727327,  0.00000000000000 ]
    - # atom 11
      - [  0.02991951056402,  0.00000000000000 ]
      - [ -0.01554346074667,  0.00000000000000 ]
      - [ -0.08221604169526,  0.00000000000000 ]
    - # atom 12
      - [  0.06350735810305,  0.00000000000000 ]
      - [  0.02512606652873,  0.00000000000000 ]
      - [ -0.06150772564000,  0.00000000000000 ]
    - # atom 13
      - [ -0.02366203058473,  0.00000000000000 ]
      - [ -0.06416116655138,  0.00000000000000 ]
      - [ -0.08621219379278,  0.00000000000000 ]
    - # atom 14
      - [ -0.03507141612051,  0.00000000000000 ]
      - [ -0.08278662833155,  0.00000000000000 ]
      - [ -0.10231439927666,  0.00000000000000 ]
    - # atom 15
      - [  0.02511377999616,  0.00000000000000 ]
      - [ -0.05746260640932,  0.00000000000000 ]
      - [ -0.15219244708084,  0.00000000000000 ]
    - # atom 16
      - [ -0.02002127169592,  0.00000000000000 ]
      - [  0.03859343622108,  0.00000000000000 ]
      - [  0.10460831546438,  0.00000000000000 ]
    - # atom 17
      - [  0.00579005540408,  0.00000000000000 ]
      - [  0.04211841191049,  0.00000000000000 ]
      - [  0.06763334605946,  0.00000000000000 ]
    - # atom 18
      - [ -0.03992193840187,  0.00000000000000 ]
      - [ -0.02020108697487,  0.00000000000000 ]
      - [  0.02276763609740,  0.00000000000000 ]
    - # atom 19
      - [  0.03466598279798,  0.00000000000000 ]
      - [  0.02389799339311,  0.00000000000000 ]
      - [ -0.01711888694435,  0.00000000000000 ]
    - # atom 20
      - [  0.10163318190379,  0.00000000000000 ]
      - [  0.09782468934493,  0.00000000000000 ]
      - [  0.01149702191693,  0.00000000000000 ]
    - # atom 21
      - [  0.07936098066172,  0.00000000000000 ]
      - [  0.10816081629774,  0.00000000000000 ]
      - [  0.07438285365704,  0.00000000000000 ]
    - # atom 22
      - [  0.07695572124683,  0.00000000000000 ]
      - [  0.11719518616204,  0.00000000000000 ]
      - [  0.09798049057055,  0.00000000000000 ]
    - # atom 23
      - [ -0.09989649936282,  0.00000000000000 ]
      - [ -0.03162312433802,  0.00000000000000 ]
      - [  0.09432362309322,  0.00000000000000 ]
    - # atom 24
      - [ -0.07883530966143,  0.00000000000000 ]
      - [ -0.06956491487874,  0.00000000000000 ]
      - [ -0.01163151264375,  0.00000000000000 ]
    - # atom 25
      - [ -0.02931755296559,  0.00000000000000 ]
      - [  0.01236373209971,  0.00000000000000 ]
      - [  0.06553493185610,  0.00000000000000 ]
  - # 7
    frequency:    0.5496889980
    eigenvector:
    - # atom 1
      - [  0.33424596111770,  0.00000000000000 ]
      - [ -0.17747151442527,  0.00000000000000 ]
      - [ -0.25454112613111,  0.00000000000000 ]
    - # atom 2
      - [  0.01036895273055,  0.00000000000000 ]
      - [ -0.05093078108440,  0.00000000000000 ]
      - [  0.11321418916472,  0.00000000000000 ]
    - # atom 3
      - [ -0.35031099406907,  0.00000000000000 ]
      - [  0.27132096891641,  0.00000000000000 ]
      - [  0.06330210083219,  0.00000000000000 ]
    - # atom 4
      - [  0.01099623624352,  0.00000000000000 ]
      - [ -0.05597504439425,  0.00000000000000 ]
      - [  0.13652215664758,  0.00000000000000 ]
    - # atom 5
      - [  0.00161283743563,  0.00000000000000 ]
      - [  0.03511076149031,  0.00000000000000 ]
      - [ -0.10251638902510,  0.00000000000000 ]
    - # atom 6
      - [  0.19879587023736,  0.00000000000000 ]
      - [  0.09588918838893,  0.00000000000000 ]
      - [ -0.10289925704711,  0.00000000000000 ]
    - # atom 7
      - [ -0.22726855392259,  0.00000000000000 ]
      - [ -0.00374943922838,  0.00000000000000 ]
      - [ -0.14800694337760,  0.00000000000000 ]
    - # atom 8
      - [ -0.00032368315048,  0.00000000000000 ]
      - [ -0.09331762060374,  0.00000000000000 ]
      - [  0.22759977502590,  0.00000000000000 ]
    - # atom 9
      - [  0.08783307682286,  0.00000000000000 ]
      - [ -0.05065641692226,  0.00000000000000 ]
      - [ -0.05893871892345,  0.00000000000000 ]
    - # atom 10
      - [  0.17876231083634,  0.00000000000000 ]
      - [ -0.12839099856943,  0.00000000000000 ]
      - [ -0.06534171888356,  0.00000000000000 ]
    - # atom 11
      - [  0.09607197435909,  0.00000000000000 ]
      - [  0.00294628295907,  0.00000000000000 ]
      - [ -0.17574353877417,  0.00000000000000 ]
    - # atom 12
      - [  0.01594337119392,  0.00000000000000 ]
      - [ -0.05884644619023,  0.00000000000000 ]
      - [  0.12988069921755,  0.00000000000000 ]
    - # atom 13
      - [ -0.16095568296911,  0.00000000000000 ]
      - [  0.14744655583628,  0.00000000000000 ]
      - [  0.10832144870468,  0.00000000000000 ]
    - # atom 14
      - [ -0.15215155905919,  0.00000000000000 ]
      - [  0.10736139438074,  0.00000000000000 ]
      - [ -0.09746454880918,  0.00000000000000 ]
    - # atom 15
      - [ -0.06470605572724,  0.00000000000000 ]
      - [  0.04647640696929,  0.00000000000000 ]
      - [  0.03411844337274,  0.00000000000000 ]
    - # atom 16
      - [  0.00128396335045,  0.00000000000000 ]
      - [  0.02470233590264,  0.00000000000000 ]
      - [ -0.06547511347657,  0.00000000000000 ]
    - # atom 17
      - [  0.05976013750135,  0.00000000000000 ]
      - [  0.05781550936985,  0.00000000000000 ]
      - [ -0.05533909170639,  0.00000000000000 ]
    - # atom 18
      - [  0.07818178189894,  0.00000000000000 ]
      - [  0.02866168778916,  0.00000000000000 ]
      - [ -0.02383561842111,  0.00000000000000 ]
    - # atom 19
      - [  0.07280223216749,  0.00000000000000 ]
      - [  0.01216492170324,  0.00000000000000 ]
      - [ -0.01005722033461,  0.00000000000000 ]
    - # atom 20
      - [ -0.02532694540276,  0.00000000000000 ]
      - [ -0.03999761588560,  0.00000000000000 ]
      - [  0.00173853525828,  0.00000000000000 ]
    - # atom 21
      - [ -0.15216291538403,  0.00000000000000 ]
      - [ -0.03671999214486,  0.00000000000000 ]
      - [ -0.04435488737542,  0.00000000000000 ]
    - # atom 22
      - [ -0.06590170421679,  0.00000000000000 ]
      - [  0.06523127807414,  0.00000000000000 ]
      - [ -0.09831107022007,  0.00000000000000 ]
    - # atom 23
      - [ -0.04248799883651,  0.00000000000000 ]
      - [ -0.06817760955461,  0.00000000000000 ]
      - [  0.11468014266900,  0.00000000000000 ]
    - # atom 24
      - [ -0.04809718551382,  0.00000000000000 ]
      - [  0.00936444066414,  0.00000000000000 ]
      - [ -0.04443116347274,  0.00000000000000 ]
    - # atom 25
      - [  0.09475616775934,  0.00000000000000 ]
      - [  0.00762410999333,  0.00000000000000 ]
      - [  0.05431044402968,  0.00000000000000 ]
  - # 8
    frequency:    1.5076667107
    eigenvector:
    - # atom 1
      - [ -0.07515107381608,  0.00000000000000 ]
      - [ -0.02482521063585,  0.00000000000000 ]
      - [  0.09327886274346,  0.00000000000000 ]
    - # atom 2
      - [ -0.00314509252425,  0.00000000000000 ]
      - [ -0.00863800548585,  0.00000000000000 ]
      - [  0.03037385910435,  0.00000000000000 ]
    - # atom 3
      - [  0.08954857826926,  0.00000000000000 ]
      - [  0.00798981132566,  0.00000000000000 ]
      - [  0.08901573491518,  0.00000000000000 ]
    - # atom 4
      - [  0.00389329869636,  0.00000000000000 ]
      - [  0.00546601139842,  0.00000000000000 ]
      - [ -0.03628433626744,  0.00000000000000 ]
    - # atom 5
      - [  0.00552327413661,  0.00000000000000 ]
      - [ -0.00914725857827,  0.00000000000000 ]